<?xml version="1.0"?>
<VTKFile type="UnstructuredGrid"  version="0.1"  >
<UnstructuredGrid>
<Piece  NumberOfPoints="9261" NumberOfCells="48000">
<Points>
<DataArray  type="Float64"  NumberOfComponents="3"  format="ascii">-0.0003 -0.0003 -0.0003  -0.0002699999999999999 -0.0003 -0.0003  -0.00024 -0.0003 -0.0003  -0.00021 -0.0003 -0.0003  -0.00018 -0.0003 -0.0003  -0.00015 -0.0003 -0.0003  -0.00012 -0.0003 -0.0003  -8.999999999999999e-05 -0.0003 -0.0003  -5.999999999999999e-05 -0.0003 -0.0003  -3.000000000000002e-05 -0.0003 -0.0003  0 -0.0003 -0.0003  2.999999999999997e-05 -0.0003 -0.0003  5.999999999999999e-05 -0.0003 -0.0003  9.000000000000002e-05 -0.0003 -0.0003  0.00012 -0.0003 -0.0003  0.00015 -0.0003 -0.0003  0.00018 -0.0003 -0.0003  0.00021 -0.0003 -0.0003  0.0002399999999999999 -0.0003 -0.0003  0.00027 -0.0003 -0.0003  0.0003 -0.0003 -0.0003  -0.0003 -0.0002699999999999999 -0.0003  -0.0002699999999999999 -0.0002699999999999999 -0.0003  -0.00024 -0.0002699999999999999 -0.0003  -0.00021 -0.0002699999999999999 -0.0003  -0.00018 -0.0002699999999999999 -0.0003  -0.00015 -0.0002699999999999999 -0.0003  -0.00012 -0.0002699999999999999 -0.0003  -8.999999999999999e-05 -0.0002699999999999999 -0.0003  -5.999999999999999e-05 -0.0002699999999999999 -0.0003  -3.000000000000002e-05 -0.0002699999999999999 -0.0003  0 -0.0002699999999999999 -0.0003  2.999999999999997e-05 -0.0002699999999999999 -0.0003  5.999999999999999e-05 -0.0002699999999999999 -0.0003  9.000000000000002e-05 -0.0002699999999999999 -0.0003  0.00012 -0.0002699999999999999 -0.0003  0.00015 -0.0002699999999999999 -0.0003  0.00018 -0.0002699999999999999 -0.0003  0.00021 -0.0002699999999999999 -0.0003  0.0002399999999999999 -0.0002699999999999999 -0.0003  0.00027 -0.0002699999999999999 -0.0003  0.0003 -0.0002699999999999999 -0.0003  -0.0003 -0.00024 -0.0003  -0.0002699999999999999 -0.00024 -0.0003  -0.00024 -0.00024 -0.0003  -0.00021 -0.00024 -0.0003  -0.00018 -0.00024 -0.0003  -0.00015 -0.00024 -0.0003  -0.00012 -0.00024 -0.0003  -8.999999999999999e-05 -0.00024 -0.0003  -5.999999999999999e-05 -0.00024 -0.0003  -3.000000000000002e-05 -0.00024 -0.0003  0 -0.00024 -0.0003  2.999999999999997e-05 -0.00024 -0.0003  5.999999999999999e-05 -0.00024 -0.0003  9.000000000000002e-05 -0.00024 -0.0003  0.00012 -0.00024 -0.0003  0.00015 -0.00024 -0.0003  0.00018 -0.00024 -0.0003  0.00021 -0.00024 -0.0003  0.0002399999999999999 -0.00024 -0.0003  0.00027 -0.00024 -0.0003  0.0003 -0.00024 -0.0003  -0.0003 -0.00021 -0.0003  -0.0002699999999999999 -0.00021 -0.0003  -0.00024 -0.00021 -0.0003  -0.00021 -0.00021 -0.0003  -0.00018 -0.00021 -0.0003  -0.00015 -0.00021 -0.0003  -0.00012 -0.00021 -0.0003  -8.999999999999999e-05 -0.00021 -0.0003  -5.999999999999999e-05 -0.00021 -0.0003  -3.000000000000002e-05 -0.00021 -0.0003  0 -0.00021 -0.0003  2.999999999999997e-05 -0.00021 -0.0003  5.999999999999999e-05 -0.00021 -0.0003  9.000000000000002e-05 -0.00021 -0.0003  0.00012 -0.00021 -0.0003  0.00015 -0.00021 -0.0003  0.00018 -0.00021 -0.0003  0.00021 -0.00021 -0.0003  0.0002399999999999999 -0.00021 -0.0003  0.00027 -0.00021 -0.0003  0.0003 -0.00021 -0.0003  -0.0003 -0.00018 -0.0003  -0.0002699999999999999 -0.00018 -0.0003  -0.00024 -0.00018 -0.0003  -0.00021 -0.00018 -0.0003  -0.00018 -0.00018 -0.0003  -0.00015 -0.00018 -0.0003  -0.00012 -0.00018 -0.0003  -8.999999999999999e-05 -0.00018 -0.0003  -5.999999999999999e-05 -0.00018 -0.0003  -3.000000000000002e-05 -0.00018 -0.0003  0 -0.00018 -0.0003  2.999999999999997e-05 -0.00018 -0.0003  5.999999999999999e-05 -0.00018 -0.0003  9.000000000000002e-05 -0.00018 -0.0003  0.00012 -0.00018 -0.0003  0.00015 -0.00018 -0.0003  0.00018 -0.00018 -0.0003  0.00021 -0.00018 -0.0003  0.0002399999999999999 -0.00018 -0.0003  0.00027 -0.00018 -0.0003  0.0003 -0.00018 -0.0003  -0.0003 -0.00015 -0.0003  -0.0002699999999999999 -0.00015 -0.0003  -0.00024 -0.00015 -0.0003  -0.00021 -0.00015 -0.0003  -0.00018 -0.00015 -0.0003  -0.00015 -0.00015 -0.0003  -0.00012 -0.00015 -0.0003  -8.999999999999999e-05 -0.00015 -0.0003  -5.999999999999999e-05 -0.00015 -0.0003  -3.000000000000002e-05 -0.00015 -0.0003  0 -0.00015 -0.0003  2.999999999999997e-05 -0.00015 -0.0003  5.999999999999999e-05 -0.00015 -0.0003  9.000000000000002e-05 -0.00015 -0.0003  0.00012 -0.00015 -0.0003  0.00015 -0.00015 -0.0003  0.00018 -0.00015 -0.0003  0.00021 -0.00015 -0.0003  0.0002399999999999999 -0.00015 -0.0003  0.00027 -0.00015 -0.0003  0.0003 -0.00015 -0.0003  -0.0003 -0.00012 -0.0003  -0.0002699999999999999 -0.00012 -0.0003  -0.00024 -0.00012 -0.0003  -0.00021 -0.00012 -0.0003  -0.00018 -0.00012 -0.0003  -0.00015 -0.00012 -0.0003  -0.00012 -0.00012 -0.0003  -8.999999999999999e-05 -0.00012 -0.0003  -5.999999999999999e-05 -0.00012 -0.0003  -3.000000000000002e-05 -0.00012 -0.0003  0 -0.00012 -0.0003  2.999999999999997e-05 -0.00012 -0.0003  5.999999999999999e-05 -0.00012 -0.0003  9.000000000000002e-05 -0.00012 -0.0003  0.00012 -0.00012 -0.0003  0.00015 -0.00012 -0.0003  0.00018 -0.00012 -0.0003  0.00021 -0.00012 -0.0003  0.0002399999999999999 -0.00012 -0.0003  0.00027 -0.00012 -0.0003  0.0003 -0.00012 -0.0003  -0.0003 -8.999999999999999e-05 -0.0003  -0.0002699999999999999 -8.999999999999999e-05 -0.0003  -0.00024 -8.999999999999999e-05 -0.0003  -0.00021 -8.999999999999999e-05 -0.0003  -0.00018 -8.999999999999999e-05 -0.0003  -0.00015 -8.999999999999999e-05 -0.0003  -0.00012 -8.999999999999999e-05 -0.0003  -8.999999999999999e-05 -8.999999999999999e-05 -0.0003  -5.999999999999999e-05 -8.999999999999999e-05 -0.0003  -3.000000000000002e-05 -8.999999999999999e-05 -0.0003  0 -8.999999999999999e-05 -0.0003  2.999999999999997e-05 -8.999999999999999e-05 -0.0003  5.999999999999999e-05 -8.999999999999999e-05 -0.0003  9.000000000000002e-05 -8.999999999999999e-05 -0.0003  0.00012 -8.999999999999999e-05 -0.0003  0.00015 -8.999999999999999e-05 -0.0003  0.00018 -8.999999999999999e-05 -0.0003  0.00021 -8.999999999999999e-05 -0.0003  0.0002399999999999999 -8.999999999999999e-05 -0.0003  0.00027 -8.999999999999999e-05 -0.0003  0.0003 -8.999999999999999e-05 -0.0003  -0.0003 -5.999999999999999e-05 -0.0003  -0.0002699999999999999 -5.999999999999999e-05 -0.0003  -0.00024 -5.999999999999999e-05 -0.0003  -0.00021 -5.999999999999999e-05 -0.0003  -0.00018 -5.999999999999999e-05 -0.0003  -0.00015 -5.999999999999999e-05 -0.0003  -0.00012 -5.999999999999999e-05 -0.0003  -8.999999999999999e-05 -5.999999999999999e-05 -0.0003  -5.999999999999999e-05 -5.999999999999999e-05 -0.0003  -3.000000000000002e-05 -5.999999999999999e-05 -0.0003  0 -5.999999999999999e-05 -0.0003  2.999999999999997e-05 -5.999999999999999e-05 -0.0003  5.999999999999999e-05 -5.999999999999999e-05 -0.0003  9.000000000000002e-05 -5.999999999999999e-05 -0.0003  0.00012 -5.999999999999999e-05 -0.0003  0.00015 -5.999999999999999e-05 -0.0003  0.00018 -5.999999999999999e-05 -0.0003  0.00021 -5.999999999999999e-05 -0.0003  0.0002399999999999999 -5.999999999999999e-05 -0.0003  0.00027 -5.999999999999999e-05 -0.0003  0.0003 -5.999999999999999e-05 -0.0003  -0.0003 -3.000000000000002e-05 -0.0003  -0.0002699999999999999 -3.000000000000002e-05 -0.0003  -0.00024 -3.000000000000002e-05 -0.0003  -0.00021 -3.000000000000002e-05 -0.0003  -0.00018 -3.000000000000002e-05 -0.0003  -0.00015 -3.000000000000002e-05 -0.0003  -0.00012 -3.000000000000002e-05 -0.0003  -8.999999999999999e-05 -3.000000000000002e-05 -0.0003  -5.999999999999999e-05 -3.000000000000002e-05 -0.0003  -3.000000000000002e-05 -3.000000000000002e-05 -0.0003  0 -3.000000000000002e-05 -0.0003  2.999999999999997e-05 -3.000000000000002e-05 -0.0003  5.999999999999999e-05 -3.000000000000002e-05 -0.0003  9.000000000000002e-05 -3.000000000000002e-05 -0.0003  0.00012 -3.000000000000002e-05 -0.0003  0.00015 -3.000000000000002e-05 -0.0003  0.00018 -3.000000000000002e-05 -0.0003  0.00021 -3.000000000000002e-05 -0.0003  0.0002399999999999999 -3.000000000000002e-05 -0.0003  0.00027 -3.000000000000002e-05 -0.0003  0.0003 -3.000000000000002e-05 -0.0003  -0.0003 0 -0.0003  -0.0002699999999999999 0 -0.0003  -0.00024 0 -0.0003  -0.00021 0 -0.0003  -0.00018 0 -0.0003  -0.00015 0 -0.0003  -0.00012 0 -0.0003  -8.999999999999999e-05 0 -0.0003  -5.999999999999999e-05 0 -0.0003  -3.000000000000002e-05 0 -0.0003  0 0 -0.0003  2.999999999999997e-05 0 -0.0003  5.999999999999999e-05 0 -0.0003  9.000000000000002e-05 0 -0.0003  0.00012 0 -0.0003  0.00015 0 -0.0003  0.00018 0 -0.0003  0.00021 0 -0.0003  0.0002399999999999999 0 -0.0003  0.00027 0 -0.0003  0.0003 0 -0.0003  -0.0003 2.999999999999997e-05 -0.0003  -0.0002699999999999999 2.999999999999997e-05 -0.0003  -0.00024 2.999999999999997e-05 -0.0003  -0.00021 2.999999999999997e-05 -0.0003  -0.00018 2.999999999999997e-05 -0.0003  -0.00015 2.999999999999997e-05 -0.0003  -0.00012 2.999999999999997e-05 -0.0003  -8.999999999999999e-05 2.999999999999997e-05 -0.0003  -5.999999999999999e-05 2.999999999999997e-05 -0.0003  -3.000000000000002e-05 2.999999999999997e-05 -0.0003  0 2.999999999999997e-05 -0.0003  2.999999999999997e-05 2.999999999999997e-05 -0.0003  5.999999999999999e-05 2.999999999999997e-05 -0.0003  9.000000000000002e-05 2.999999999999997e-05 -0.0003  0.00012 2.999999999999997e-05 -0.0003  0.00015 2.999999999999997e-05 -0.0003  0.00018 2.999999999999997e-05 -0.0003  0.00021 2.999999999999997e-05 -0.0003  0.0002399999999999999 2.999999999999997e-05 -0.0003  0.00027 2.999999999999997e-05 -0.0003  0.0003 2.999999999999997e-05 -0.0003  -0.0003 5.999999999999999e-05 -0.0003  -0.0002699999999999999 5.999999999999999e-05 -0.0003  -0.00024 5.999999999999999e-05 -0.0003  -0.00021 5.999999999999999e-05 -0.0003  -0.00018 5.999999999999999e-05 -0.0003  -0.00015 5.999999999999999e-05 -0.0003  -0.00012 5.999999999999999e-05 -0.0003  -8.999999999999999e-05 5.999999999999999e-05 -0.0003  -5.999999999999999e-05 5.999999999999999e-05 -0.0003  -3.000000000000002e-05 5.999999999999999e-05 -0.0003  0 5.999999999999999e-05 -0.0003  2.999999999999997e-05 5.999999999999999e-05 -0.0003  5.999999999999999e-05 5.9999999999999
[...]
<PointData  Vectors="f_35"> 
<DataArray  type="Float64"  Name="f_35"  NumberOfComponents="3" format="ascii">1.6454842943830433e+03 1.6511430032622691e+03 1.7035234389319507e+03  1.5724404646402941e+03 1.6568882942912146e+03 1.7076071998038506e+03  1.4857618469152019e+03 1.6586144758114790e+03 1.7067805419324729e+03  1.3959380539816639e+03 1.6596413015307178e+03 1.7069092011250523e+03  1.3020680246376146e+03 1.6607465454988881e+03 1.7078329447665899e+03  1.2008201097124168e+03 1.6622247062594397e+03 1.7097597784472487e+03  1.0877830232854933e+03 1.6641482558525640e+03 1.7129211046774851e+03  9.5805805571888027e+02 1.6664653719194114e+03 1.7173741508102723e+03  8.0712471514482229e+02 1.6690108138407718e+03 1.7229723433879146e+03  6.3193989515885960e+02 1.6715013090323962e+03 1.7293324354092758e+03  4.3207467967835879e+02 1.6735377755523689e+03 1.7358188396799128e+03  2.1049645113433721e+02 1.6746688714280917e+03 1.7416450948674169e+03  -2.6436313284176951e+01 1.6745202388968269e+03 1.7460822823613978e+03  -2.6992919634543813e+02 1.6729170506447304e+03 1.7486794527214095e+03  -5.1048952626605171e+02 1.6699755140353907e+03 1.7493600579830604e+03  -7.4031567440744107e+02 1.6661158914072018e+03 1.7483981796899091e+03  -9.5286413291862311e+02 1.6619776879748815e+03 1.7469044295201061e+03  -1.1531198999825310e+03 1.6581266940234943e+03 1.7461865708375094e+03  -1.3222591940651735e+03 1.6572636461748077e+03 1.7428976987231561e+03  -1.5450276003727140e+03 1.6675925478381564e+03 1.7354357971679024e+03  -1.6098770104960720e+03 1.6701940712593100e+03 1.7737010719245204e+03  1.6500251827116142e+03 1.5975987645097850e+03 1.7063993495857924e+03  1.5789574821480483e+03 1.6039847708783313e+03 1.7164071603478455e+03  1.4878795334372635e+03 1.6076383353879944e+03 1.7141654011940896e+03  1.3976092903817816e+03 1.6103654617334853e+03 1.7143350733672805e+03  1.3040925652947672e+03 1.6134452214584876e+03 1.7152820158649213e+03  1.2033286561132850e+03 1.6172150922909689e+03 1.7173527460079908e+03  1.0907527770423385e+03 1.6216966627700394e+03 1.7207849414738673e+03  9.6132757961694210e+02 1.6267008208637330e+03 1.7256582661221926e+03  8.1034552538029470e+02 1.6317760564544456e+03 1.7318657506279046e+03  6.3454855388566330e+02 1.6361451282118562e+03 1.7389871818622876e+03  4.3338393970338831e+02 1.6387406955296867e+03 1.7462774821065304e+03  2.0987291498843967e+02 1.6384155394383390e+03 1.7528537800611680e+03  -2.9373601872792928e+01 1.6342786427112717e+03 1.7579433602261299e+03  -2.7516385829188323e+02 1.6260289004453291e+03 1.7610789311683147e+03  -5.1754094059397687e+02 1.6141657766235001e+03 1.7622074908175987e+03  -7.4812717562698765e+02 1.5999568111805395e+03 1.7617212403438027e+03  -9.6091154504077826e+02 1.5851939897923990e+03 1.7604244150393279e+03  -1.1578017888924214e+03 1.5720576239655159e+03 1.7592568837371857e+03  -1.3290112837051456e+03 1.5632893620538198e+03 1.7561366173175893e+03  -1.5230895422193150e+03 1.5574175921584381e+03 1.7509910147536930e+03  -1.5891332426774459e+03 1.5734038201693761e+03 1.7852738229360673e+03  1.6519772330266019e+03 1.5318932710984175e+03 1.7061053395925405e+03  1.5827382641171121e+03 1.5340986844854688e+03 1.7150810041974842e+03  1.4910776182688858e+03 1.5373222714061519e+03 1.7124075668486048e+03  1.4013468688962153e+03 1.5414881430251980e+03 1.7126035460335238e+03  1.3086688395466308e+03 1.5466850262598748e+03 1.7134890132776609e+03  1.2087062758937716e+03 1.5528323928412353e+03 1.7155402775699245e+03  1.0967522616076915e+03 1.5597228354047652e+03 1.7189971795499757e+03  9.6753066468512031e+02 1.5669418164625022e+03 1.7240454360290660e+03  8.1593940732988563e+02 1.5737029852516926e+03 1.7307420836003434e+03  6.3825955649306536e+02 1.5787075710077081e+03 1.7386134636023864e+03  4.3368485242624513e+02 1.5802176404914351e+03 1.7466817487484916e+03  2.0537024402632034e+02 1.5764071750090661e+03 1.7538842989847724e+03  -3.9493557768929996e+01 1.5658995490281452e+03 1.7593476469312311e+03  -2.9073491556771171e+02 1.5483234909727189e+03 1.7625182360471454e+03  -5.3726752666888024e+02 1.5246560997370843e+03 1.7633163964838195e+03  -7.6980845502553962e+02 1.4971598185240225e+03 1.7622016424746789e+03  -9.8179302707929321e+02 1.4689788502537074e+03 1.7599772106169833e+03  -1.1752766126376298e+03 1.4436113074760665e+03 1.7578530708648950e+03  -1.3391526332839494e+03 1.4239006269112886e+03 1.7541036383174919e+03  -1.5268825580896628e+03 1.4139839008851316e+03 1.7482216906186879e+03  -1.5823211285418563e+03 1.4109582991978273e+03 1.7807872964963772e+03  1.6532285324415909e+03 1.4598850140422414e+03 1.7073927792474644e+03  1.5856600522593928e+03 1.4617955867293283e+03 1.7165695624779664e+03  1.4953318193423318e+03 1.4657889310565936e+03 1.7138393086584574e+03  1.4069203209386285e+03 1.4714950998062093e+03 1.7140251421516298e+03  1.3153397984556759e+03 1.4785271934842738e+03 1.7149677355221054e+03  1.2161459301320090e+03 1.4864042309881581e+03 1.7172629779232793e+03  1.1045315020656758e+03 1.4945870939996537e+03 1.7212034008630608e+03  9.7495982981477948e+02 1.5023814514413239e+03 1.7270957171752518e+03  8.2182462968464029e+02 1.5087138521321344e+03 1.7351425804379114e+03  6.4081899773455223e+02 1.5119445844271193e+03 1.7447324622866677e+03  4.3081611733465439e+02 1.5099414412890976e+03 1.7545024268084744e+03  1.9516910040294812e+02 1.5004866619005829e+03 1.7630725783044215e+03  -5.8079660821767462e+01 1.4819496762773420e+03 1.7693592366437106e+03  -3.1729349351608505e+02 1.4540313664023108e+03 1.7726336234256153e+03  -5.6974950239701047e+02 1.4182296933288426e+03 1.7727817067231008e+03  -8.0480764570410520e+02 1.3777368030236612e+03 1.7704320803436360e+03  -1.0155138564258767e+03 1.3368038265479756e+03 1.7666254831817926e+03  -1.2033024536113905e+03 1.2998768898865492e+03 1.7628978367998557e+03  -1.3595066236068824e+03 1.2710136151850606e+03 1.7577118870870565e+03  -1.5341043572199026e+03 1.2534353336614972e+03 1.7504038550040902e+03  -1.5826449477169513e+03 1.2476815366065362e+03 1.7835628477433122e+03  1.6546443643809116e+03 1.3794414916603243e+03 1.7096559151783401e+03  1.5892318640843914e+03 1.3819291687465800e+03 1.7187886924592644e+03  1.5009976157193539e+03 1.3872396459378788e+03 1.7158757763287679e+03  1.4142221746366561e+03 1.3945961710896731e+03 1.7162020494525757e+03  1.3235238092531285e+03 1.4030887853496129e+03 1.7174968928688349e+03  1.2244295054577410e+03 1.4116434636467302e+03 1.7203935478382325e+03  1.1121299885682126e+03 1.4191917118844624e+03 1.7252816129846051e+03  9.8089243117766603e+02 1.4246528899467432e+03 1.7325232352627897e+03  8.2468090741880599e+02 1.4267529146594932e+03 1.7422875458666049e+03  6.3867791736978518e+02 1.4238490297605133e+03 1.7538478116179551e+03  4.2144382134928520e+02 1.4139419594165072e+03 1.7655983440010957e+03  1.7655944455500588e+02 1.3950060477575469e+03 1.7758111133705909e+03  -8.6900642209201578e+01 1.3656695468869102e+03 1.7830272732400433e+03  -3.5552010603898987e+02 1.3260379188405382e+03 1.7862320553628774e+03  -6.1460869442234286e+02 1.2782086780687544e+03 1.7852853753481049e+03  -8.5200957588773326e+02 1.2260973931463525e+03 1.7810784969362057e+03  -1.0603445545390787e+03 1.1746301500731240e+03 1.7750570681158347e+03  -1.2407883250173611e+03 1.1287993390270456e+03 1.7691741594237310e+03  -1.3871574278710925e+03 1.0929195374434105e+03 1.7620071480133540e+03  -1.5448319847050300e+03 1.0707418975136075e+03 1.7528394876637415e+03  -1.5855459932272845e+03 1.0635898163406980e+03 1.7845650682048201e+03  1.6565923875440378e+03 1.2873226037598356e+03 1.7126889546311279e+03  1.5939429608066143e+03 1.2905945670158269e+03 1.7217945043010939e+03  1.5082585700888224e+03 1.2973182332318240e+03 1.7187880174363406e+03  1.4230549698124123e+03 1.3061945774322185e+03 1.7196032590665363e+03  1.3324322574528421e+03 1.3155595025321979e+03 1.7217448515984215e+03  1.2319176189224913e+03 1.3234558357645069e+03 1.7256954421413950e+03  1.1168453030846665e+03 1.3280028233703772e+03 1.7319150711491313e+03  9.8151514680895434e+02 1.3275621294245620e+03 1.7407996964155977e+03  8.1981171541240133e+02 1.3207384598322508e+03 1.7523399409616129e+03  6.2675822441412924e+02 1.3062745367651441e+03 1.7657356405399055e+03  4.0078459476080508e+02 1.2829675330829650e+03 1.7793641535755905e+03  1.4575731165546532e+02 1.2498081886914094e+03 1.7911698105421115e+03  -1.2818100146580741e+02 1.2064600224752412e+03 1.7991506355036397e+03  -4.0582735594534148e+02 1.1539244135557046e+03 1.8019343856679830e+03  -6.7056133091921845e+02 1.0949618457038978e+03 1.7994116532094270e+03  -9.0884622046541176e+02 1.0338526209317413e+03 1.7928321319332690e+03  -1.1130654586577143e+03 9.7557722900660281e+02 1.7841309166206772e+03  -1.2843787869795651e+03 9.2489586865378612e+02 1.7756875928282805e+03  -1.4191119332228714e+03 8.8582829534148027e+02 1.7662301117096270e+03  -1.5575906940317163e+03 8.6172749897196138e+02 1.7549164450100438e+03  -1.5896301643769725e+03 8.5395406610372925e+02 1.7848467596275739e+03  1.6591416249486274e+03 1.1791234146699303e+03 1.7168471271754959e+03  1.5998045345431071e+03 1.1831018628636564e+03 1.7262367249992442e+03  1.5169350211109208e+03 1.1909509456911585e+03 1.7233966377249510e+03  1.4329160508783855e+03 1.2008027525498173e+03 1.7251051657159892e+03  1.3410360912210751e+03 1.2101112853695752e+03 1.7285153224107917e+03  1.2367514005691989e+03 1.2158097837601761e+03 1.7338345120006811e+03  1.1156701639459841e+03 1.2148976201988921e+03 1.7414870430848600e+03  9.7256533940107704e+02 1.2049341065798803e+03 1.7519014105727965e+03  8.0191461885180058e+02 1.1844000452061891e+03 1.7649349802869403e+03  5.9926687626071498e+02 1.1527837022098738e+03 1.7797354620828455e+03  3.6341277326214436e+02 1.1104257321135385e+03 1.7946978220229239e+03  9.8674043004312821e+01 1.0583351221316166e+03 1.8074794063267962e+03  -1.8392433779906773e+02 9.9816195534793951e+02 1.8155765869087309e+03  -4.6785023622816379e+02 9.3236506722585762e+02 1.8173424866437406e+03  -7.3510574988552366e+02 8.6435488787527663e+02 1.8127860877051826e+03  -9.7132586989881577e+02 7.9823516278128375e+02 1.8035544675733486e+03  -1.1689983669204378e+03 7.3817907387422474e+02 1.7920641972572830e+03  -1.3295884243421804e+03 6.8778528064257557e+02 1.7810761666952963e+03  -1.4516114727395341e+03 6.4993702381055573e+02 1.7694596848294843e+03  -1.5707393442510784e+03 6.2677658836562944e+02 1.7563420649851350e+03  -1.5942386124900779e+03 6.1944312774730736e+02 1.7842706852630915e+03  1.6622192407847836e+03 1.0489149493453226e+03 1.7226283099496250e+03  1.6064876785935248e+03 1.0533149690367179e+03 1.7327260928828223e+03  1.5263743220923939e+03 1.0615909048267040e+03 1.7304188883601025e+03  1.4428678580630594e+03 1.0713752670467547e+03 1.7334032271179528e+03  1.3480322425697575e+03 1.0793090105083299e+03 1.7383348600635641e+03  1.2370237810155127e+03 1.0811462851610465e+03 1.7452110315059895e+03  1.1057940485498932e+03 1.0725775611377744e+03 1.7542853538138108e+03  9.5017370470394701e+02 1.0501551613983520e+03 1.7658683283550399e+03  7.6619949004166926e+02 1.0121803229618089e+03 1.7797347439631258e+03  5.5101370321126319e+02 9.5916460150309229e+02 1.7949957904514988e+03  3.0463258418785938e+02 8.9366681212896503e+02 1.8100165660583968e+03  3.2131807185321065e+01 8.1962297520601828e+02 1.8223353613374818e+03  -2.5502514891025797e+02 7.4150129701206333e+02 1.8292972977006277e+03  -5.3997004502888547e+02 6.6366068652371962e+02 1.8292382280529537e+03  -8.0448005362150843e+02 5.9002720380046105e+02 1.8223520494320712e+03  -1.0343488865475722e+03 5.2386880702423230e+02 1.8106113227280832e+03  -1.2226630418243449e+03 4.6762129682448790e+02 1.7967710682350639e+03  -1.3714721119974424e+03 4.2280891336124063e+02 1.7838035329582517e+03  -1.4808570273769701e+03 3.9043419895089983e+02 1.7706508738072455e+03  -1.5827631523588041e+03 3.7084977759795760e+02 1.7564811534381113e+03  -1.5989446761367972e+03 3.6478776216172622e+02 1.7821836969321421e+03  1.6656086479410867e+03 8.9073643864454243e+02 1.7300071139873642e+03  1.6133043757955691e+03 8.9502002390791938e+02 1.7410783554928726e+03  1.5353968443244109e+03 9.0252321823814248e+02 1.7395827934181134e+03  1.4514163912575821e+03 9.1056406084626929e+02 1.7441963854573462e+03  1.3517178498424839e+03 9.1521794405596177e+02 1.7509597125104920e+03  1.2308320914655958e+03 9.1126590739236622e+02 1.7596998075600802e+03  1.0850572604552669e+03 8.9323923921859750e+02 1.7703140023105702e+03  9.1185388020551284e+02 8.5676005307644482e+02 1.7826763847123825e+03  7.0992369102116504e+02 7.9999840273352584e+02 1.7963377359298859e+03  4.7935733283997564e+02 7.2463054535121455e+02 1.8103899251848557e+03  2.2251289185535401e+02 6.3571788974063952e+02 1.8233230203308713e+03  -5.4425768858702519e+01 5.4046865557207514e+02 1.8329814524241774e+03  -3.4018884194995854e+02 4.4645044246579249e+02 1.8371104970371334e+03  -6.1898397529370300e+02 3.5999366234984814e+02 1.8343719195027882e+03  -8.7401924960379176e+02 2.8526945330881540e+02 1.8251709889641313e+03  -1.0925567305225311e+03 2.2413967770066495e+02 1.8116012046390963e+03  -1.2688339618276596e+03 1.7663743945131480e+02 1.7964472955192343e+03  -1.4056211250464546e+03 1.4166483803873507e+02 1.7825859801498582e+03  -1.5036980729216214e+03 1.1793977965167358e+02 1.7689161772458820e+03  -1.5924175489155793e+03 1.0383563798463470e+02 1.7547010170409219e+03  -1.6034548408275480e+03 9.9579884624968813e+01 1.7780645377242640e+03  1.6688838752059075e+03 7.0073812023540177e+02 1.7383149551906727e+03  1.6191374914474843e+03 7.0412470251483523e+02 1.7503859772551955e+03  1.5421965902839620e+03 7.0912907529121685e+02 1.7497755109119705e+03  1.4563220603010443e+03 7.1301157233656318e+02 1.7562712024392749e+03  1.3497835580280250e+03 7.1170062630298366e+02 1.7652612034124907e+03  1.2162178779327421e+03 6.9959739455300678e+02 1.7762461438890052e+03  1.0522476455493711e+03 6.7073769798835383e+02 1.7885119641547938e+03  8.5737333526578493e+02 6.2037914165751420e+02 1.8011897076760195e+03  6.3391728136650124e+02 5.4686480933240944e+02 1.8133695651650137e+03  3.8619335347770107e+02 4.5298603603156886e+02 1.8241511686774525e+03  1.1992988416806250e+02 3.4590630168933058e+02 1.8325116827476404e+03  -1.5729541597722655e+02 2.3547851534324960e+02 1.8371705693802262e+03  -4.3506295480556020e+02 1.3171612271712260e+02 1.8368220459218528e+03  -7.0014504469032909e+02 4.2387025516698969e+01 1.8307823586154550e+03  -9.3895821895540428e+02 -2.8462170394085376e+01 1.8196647724259865e+03  -1.1415642444085674e+03 -8.0570692303643312e+01 1.8053834380755311e+03  -1.3038365884701170e+03 -1.1634096241968585e+02 1.7903374073346215e+03  -1.4292383276743358e+03 -1.3939245685285641e+02 1.7769461445224879e+03  -1.5183240740268770e+03 -1.5317928740813278e+02 1.7639490947506927e+03  -1.5989494993474314e+03 -1.6105790843093294e+02 1.7507218241281175e+03  -1.6075623275097337e+03 -1.6337622314009511e+02 1.7718490294841463e+03  1.6714511316339640e+03 4.7912065633934247e+02 1.7464732973400824e+03  1.6225250551242789e+03 4.8070411800905492e+02 1.7594447990639048e+03  1.5444363034727396e+03 4.8119225989589160e+02 1.7596669598947772e+03  1.4546762649031493e+03 4.7808786213655350e+02 1.7680440253549100e+03  1.3393856298696874e+03 4.6772063998801696e+02 1.7793396620925544e+03  1.1912599242897745e+03 4.4501602191423206e+02 1.7925584713466039e+03  1.0072687285164301e+03 4.0461481216398408e+02 1.8062017743694032e+03  7.8912200479936303e+02 3.4242595819102786e+02 1.8185319953067992e+03  5.4321873054907053e+02 2.5752083079346977e+02 1.8280629234253481e+03  2.7874461580585489e+02 1.5356089796703694e+02 1.8339554644421899e+03  5.3012188100163478e+00 3.8725981115003613e+01 1.8359861301421931e+03  -2.6805810128625717e+02 -7.6076237586031795e+01 1.8341517953683790e+03  -5.3225994115245635e+02 -1.7997714879718291e+02 1.8284346849515955e+03  -7.7772178830317341e+02 -2.6490084055381874e+02 1.8190116155336834e+03  -9.9536833423302937e+02 -3.2731529616028911e+02 1.8066709497817124e+03  -1.1790112454574498e+03 -3.6825402581058376e+02 1.7928708741634348e+03  -1.3264817841900713e+03 -3.9185550225352154e+02 1.7792735901016174e+03  -1.4418352657291503e+03 -4.0348338815566558e+02 1.7675676766430711e+03  -1.5246752601863946e+03 -4.0813951000322601e+02 1.7562612691920820e+03  -1.6022513356200639e+03 -4.1031790092679660e+02 1.7448176219388174e+03  -1.6111237953028863e+03 -4.1095802943362980e+02 1.7640523544088658e+03  1.6726979672852071e+03 2.3119968988219472e+02 1.7533012640978161e+03  1.6219908083864375e+03 2.3019577171979702e+02 1.7670231322700047e+03  1.5397781290108196e+03 2.2445534655599522e+02 1.7679092642885153e+03  1.4436058698456407e+03 2.1204349639945934e+02 1.7777536657608161e+03  1.3178876863136495e+03 1.9024544390186961e+02 1.7907704586770960e+03  1.1546398196150601e+03 1.5543349364013926e+02 1.8054770925734258e+03  9.5130768465666438e+02 1.0400878430403633e+02 1.8196653250202182e+03  7.1172461774139936e+02 3.3632267586410336e+01 1.8308515400280221e+03  4.4608338807979078e+02 -5.5317749880582838e+01 1.8370735076613880e+03  1.6806842146938092e+02 -1.5869131779414627e+02 1.8376317909665870e+03  -1.0916128063789023e+02 -2.6867940142597035e+02 1.8331578283361064e+03  -3.7528681078621651e+02 -3.7530306453275603e+02 1.8249333985470532e+03  -6.2278287449367713e+02 -4.6880606330927645e+02 1.8142138821256083e+03  -8.4599989795505496e+02 -5.4214822047345820e+02 1.8020178829545405e+03  -1.0407132511286691e+03 -5.9264470334643488e+02 1.7892455248501822e+03  -1.2047515945230109e+03 -6.2201625409860424e+02 1.7767848869456946e+03  -1.3380085957682711e+03 -6.3502900688448858e+02 1.7654451626729094e+03  -1.4450722757411781e+03 -6.3763847782528228e+02 1.7561091594002894e+03  -1.5242502434786334e+03 -6.3546506622283107e+02 1.7470498085252475e+03  -1.6028122817646756e+03 -6.3339056339717786e+02 1.7377646303326203e+03  -1.6140557984815493e+03 -6.3285218290555463e+02 1.7556225119361998e+03  1.6721870705567528e+03 -3.2985735779388634e+01 1.7578277850205532e+03  1.6165565799294859e+03 -3.6928716343639714e+01 1.7721064220250944e+03  1.5267621839452820e+03 -4.9558221727213599e+01 1.7733008515480153e+03  1.4214627389227808e+03 -7.1988506554732737e+01 1.7837772937841646e+03  1.2841205427156094e+03 -1.0558674110301510e+02 1.7973569995598587e+03  1.1065883284360229e+03 -1.5191303147514768e+02 1.8122371664822081e+03  8.8700929415544738e+02 -2.1205934794710606e+02 1.8257847207660352e+03  6.3101202812555596e+02 -2.8594348270504361e+02 1.8351087847787107e+03  3.5159648016498079e+02 -3.7161479580155213e+02 1.8380492493403995e+03  6.5614503602689126e+01 -4.6485506907336486e+02 1.8341119908227527e+03  -2.1129663126326594e+02 -5.5935154495065615e+02 1.8245715711390262e+03  -4.6803356324743839e+02 -6.4760842652345571e+02 1.8116252055636141e+03  -6.9850716375108254e+02 -7.2251143108290694e+02 1.7974430437137132e+03  -9.0046129936952286e+02 -7.7908193898729701e+02 1.7836412002973589e+03  -1.0738702426549023e+03 -8.1570175057097129e+02 1.7711582425504478e+03  -1.2201303449821439e+03 -8.3423210102643316e+02 1.7603976048094335e+03  -1.3410579854398986e+03 -8.3907051247579909e+02 1.7514597814678243e+03  -1.4417826159589908e+03 -8.3569466272436148e+02 1.7445488948163288e+03  -1.5193560690494101e+03 -8.2942665011593692e+02 1.7377610715104681e+03  -1.6014634131861274e+03 -8.2483799126854728e+02 1.7305733216540741e+03  -1.6163245056656608e+03 -8.2364977110890436e+02 1.7476251777009850e+03  1.6698209201846571e+03 -3.0065200582669814e+02 1.7595757502504077e+03  1.6061890895848737e+03 -3.0726011122954435e+02 1.7742163486335803e+03  1.5055581177038573e+03 -3.2596939068307518e+02 1.7752405059204864e+03  1.3888036408142329e+03 -3.5695838405621271e+02 1.7853385457509255e+03  1.2393763466908738e+03 -4.0014034700998855e+02 1.7981624479299064e+03  1.0495572066368618e+03 -4.5488036062779247e+02 1.8118195603617162e+03  8.1838794444176744e+02 -5.1969579993353193e+02 1.8236034276408477e+03  5.5276666548396690e+02 -5.9213911680039587e+02 1.8306342832605510e+03  2.6713494500287663e+02 -6.6889958582291